                         Program Version 3.0.3 - RELEASE   -
|  1> ! RKS B3LYP/G def2-svp opt freq
|  2> ! TightSCF freq Grid7 FinalGrid7
|  3>
|  4>
|  5> * xyz 0 1
|  6>  C                 -0.99999998   -0.27450980    0.00000000
|  7>  H                 -0.64334556   -1.28331980    0.00000000
|  8>  H                 -0.64332714    0.22988839    0.87365150
|  9>  H                 -0.64332714    0.22988839   -0.87365150
| 10>  H                 -2.06999998   -0.27449662    0.00000000
| 11> *
| 12>
| 13> %output
| 14>        print[P_Hirshfeld] 1
| 15>        print[P_BondOrder_M] 1
| 16>        print[P_Mayer] 1
| 17>  end
| 18>
| 19>
| 20>                          ****END OF INPUT****
 Total Charge           Charge          ....    0
 Multiplicity           Mult            ....    1
 Number of Electrons    NEL             ....   10
FINAL SINGLE POINT ENERGY       -40.485532943383
FINAL SINGLE POINT ENERGY       -40.487787456727
FINAL SINGLE POINT ENERGY       -40.487790212404
                    ***********************HURRAY********************

CARTESIAN COORDINATES (ANGSTROEM)
---------------------------------
  C      0.000000    0.000000    0.000000
  H      0.000000    0.000000    1.100000
  H      1.037090    0.000000   -0.366667
  H     -0.518545    0.898146   -0.366667
  H     -0.518545   -0.898146   -0.366667

 Multiplicity           Mult            ....    1
 Number of Electrons    NEL             ....   10
 Basis Dimension        Dim             ....   34

ORBITAL ENERGIES
----------------

  NO   OCC          E(Eh)            E(eV)
   0   2.0000     -10.176063      -276.9048
   1   2.0000      -0.683667       -18.6035
   2   2.0000      -0.390116       -10.6156
   3   2.0000      -0.390116       -10.6156
   4   2.0000      -0.390116       -10.6156
   5   0.0000       0.070964         1.9310
   6   0.0000       0.142449         3.8762
   7   0.0000       0.142449         3.8762
   8   0.0000       0.142449         3.8762
   9   0.0000       0.417262        11.3543

MULLIKEN ATOMIC CHARGES
-----------------------
   0 C :   -0.117685
   1 H :    0.029421
   2 H :    0.029421
   3 H :    0.029421
   4 H :    0.029421
Sum of atomic charges:   -0.0000000

LOEWDIN ATOMIC CHARGES
----------------------
   0 C :   -0.109190
   1 H :    0.027297
   2 H :    0.027297
   3 H :    0.027297
   4 H :    0.027298

  Mayer bond orders larger than 0.1
B(  0-C ,  1-H ) :   0.9986 B(  0-C ,  2-H ) :   0.9986 B(  0-C ,  3-H ) :   0.9986
B(  0-C ,  4-H ) :   0.9986

FINAL SINGLE POINT ENERGY       -40.487790229451

DIPOLE MOMENT
-------------
                                X             Y             Z
Electronic contribution:     -0.00000       0.00000      -0.00000
Nuclear contribution   :      0.00000      -0.00000       0.00000
                        -----------------------------------------
Total Dipole Moment    :      0.00000      -0.00000       0.00000
                        -----------------------------------------
Magnitude (a.u.)       :      0.00000
Magnitude (Debye)      :      0.00000

VIBRATIONAL FREQUENCIES
-----------------------

   0:         0.00 cm**-1
   1:         0.00 cm**-1
   2:         0.00 cm**-1
   3:         0.00 cm**-1
   4:         0.00 cm**-1
   5:         0.00 cm**-1
   6:      1314.22 cm**-1
   7:      1314.24 cm**-1
   8:      1314.26 cm**-1
   9:      1531.80 cm**-1
  10:      1531.80 cm**-1
  11:      3021.40 cm**-1
  12:      3154.91 cm**-1
  13:      3154.92 cm**-1
  14:      3154.92 cm**-1

IR SPECTRUM
-----------

 Mode    freq (cm**-1)   T**2         TX         TY         TZ
-------------------------------------------------------------------
   6:      1314.22   13.498596  ( -3.619015   0.633501   0.000000)
   7:      1314.24   13.475665  (  0.634401   3.615688  -0.000000)
   8:      1314.26   13.445060  ( -0.000000  -0.000000  -3.666751)
   9:      1531.80    0.000001  ( -0.000000  -0.000000  -0.000732)
  10:      1531.80    0.000018  ( -0.000359  -0.004282   0.000000)
  11:      3021.40    0.000000  ( -0.000060  -0.000030   0.000000)
  12:      3154.91   17.439542  ( -4.169904   0.226813   0.000000)
  13:      3154.92   17.432650  ( -0.226676  -4.169085   0.000000)
  14:      3154.92   17.426465  (  0.000000   0.000000   4.174502)

--------------------------
THERMOCHEMISTRY AT 298.15K
--------------------------

Temperature         ... 298.15 K
Pressure            ... 1.00 atm
Total Mass          ... 16.04 AMU

Throughout the following assumptions are being made:
  (1) The electronic state is orbitally nondegenerate
  (2) There are no thermally accessible electronically excited states
  (3) Hindered rotations indicated by low frequency modes) are not
      treated as such but are treated as vibrations and this may
      case some error
  (4) All equations used are the standard statistical mechanics
      equations for an ideal gas
  (5) All vibrations are strinctly harmonic

------------
INNER ENERGY
------------

The inner energy is: U= E(el) + E(ZPE) + E(vib) + E(rot) + E(trans)
    E(el)   - is the total energy from the electronic structure calculation
              = E(kin-el) + E(nuc-el) + E(el-el) + E(nuc-nuc)
    E(ZPE)  - the the zero temperature vibrational energy from the frequency calculation
    E(vib)  - the the finite temperature correction to E(ZPE) due to population
              of excietd vibrational states
    E(rot)  - is the rotational thermal energy
    E(trans)- is the translational thermal energy

Summary of contributions to the inner energy U:
Electronic energy                ...    -40.48779023 Eh
Zero point energy                ...      0.04440711 Eh      27.87 kcal/mol
Thermal vibrational correction   ...      0.00004031 Eh       0.03 kcal/mol
Thermal rotational correction    ...      0.00141627 Eh       0.89 kcal/mol
Thermal translational correction ...      0.00141627 Eh       0.89 kcal/mol
-----------------------------------------------------------------------
Total thermal energy                    -40.44051026 Eh

Summary of corrections to the electronic energy:
(perhaps to be used in another calculation)
Total thermal correction                  0.00287286 Eh       1.80 kcal/mol
Non-thermal (ZPE) correction              0.04440711 Eh      27.87 kcal/mol
-----------------------------------------------------------------------
Total correction                          0.04727997 Eh      29.67 kcal/mol

--------
ENTHALPY
--------

The enthalpy is H = U + kB*T
                kB is Boltzmann's constant
Total free energy                 ...    -40.44051026 Eh
Thermal Enthalpy correction       ...      0.00094421 Eh       0.59 kcal/mol
-----------------------------------------------------------------------
Total Enthalpy                    ...    -40.43956605 Eh

-------
ENTROPY
-------

The entropy contributions are T*S = T*(S(el)+S(vib)+S(rot)+S(trans)
     S(el)   - electronic entropy
     S(vib)  - vibrational entropy
     S(rot)  - rotational entropy
     S(trans)- translational entropy
The entropies will be listed as mutliplied by the temperature to get
units of energy

Electronic entropy                ...      0.00000000 Eh      0.00 kcal/mol
Vibrational entropy               ...      0.00004647 Eh      0.03 kcal/mol
Rotational entropy                ...      0.00614144 Eh      3.85 kcal/mol
Translational entropy             ...      0.01627961 Eh     10.22 kcal/mol
-----------------------------------------------------------------------
Final entropy term                ...      0.02246752 Eh     14.10 kcal/mol

CAUTION: The rotational entropy is not quite correctly treated here
         because it includes a symmetry number that is not yet correctly
         implemented in ORCA!
For a nonlinear molecule the correct rotational entropy is:
    S(rot) = R*(ln(qrot/sn)+1.5)
    R    = 8.31441 J/mol/K = 1.987191683e-3 kcal/mol/K
    qrot =  447.2561303
    sn is the rotational symmetry number. We have assumed 3 here
       if it is different for your molecule then you should correct
       the printed rotational entropy by manually evaluating the equation
       as given above

For convenience we print out the resulting values for sn=1 - 12:
 sn= 1  qrot/sn=     447.2561 T*S(rot)=     4.50 kcal/mol T*S(tot)=    14.75 kcal/mol
 sn= 2  qrot/sn=     223.6281 T*S(rot)=     4.09 kcal/mol T*S(tot)=    14.34 kcal/mol
 sn= 3  qrot/sn=     149.0854 T*S(rot)=     3.85 kcal/mol T*S(tot)=    14.10 kcal/mol
 sn= 4  qrot/sn=     111.8140 T*S(rot)=     3.68 kcal/mol T*S(tot)=    13.93 kcal/mol
 sn= 5  qrot/sn=      89.4512 T*S(rot)=     3.55 kcal/mol T*S(tot)=    13.80 kcal/mol
 sn= 6  qrot/sn=      74.5427 T*S(rot)=     3.44 kcal/mol T*S(tot)=    13.69 kcal/mol
 sn= 7  qrot/sn=      63.8937 T*S(rot)=     3.35 kcal/mol T*S(tot)=    13.60 kcal/mol
 sn= 8  qrot/sn=      55.9070 T*S(rot)=     3.27 kcal/mol T*S(tot)=    13.52 kcal/mol
 sn= 9  qrot/sn=      49.6951 T*S(rot)=     3.20 kcal/mol T*S(tot)=    13.45 kcal/mol
 sn=10  qrot/sn=      44.7256 T*S(rot)=     3.14 kcal/mol T*S(tot)=    13.39 kcal/mol
 sn=11  qrot/sn=      40.6596 T*S(rot)=     3.08 kcal/mol T*S(tot)=    13.33 kcal/mol
 sn=12  qrot/sn=      37.2713 T*S(rot)=     3.03 kcal/mol T*S(tot)=    13.28 kcal/mol

-------------------
GIBBS FREE ENTHALPY
-------------------

The Gibbs free enthalpy is G = H - T*S

Total enthalpy                    ...    -40.43956605 Eh
Total entropy correction          ...     -0.02246752 Eh    -14.10 kcal/mol
-----------------------------------------------------------------------
Final Gibbs free enthalpy         ...    -40.46203357 Eh

For completeness - the Gibbs free enthalpy minus the electronic energy
G-E(el)                           ...      0.02575666 Eh     16.16 kcal/mol

                             ****ORCA TERMINATED NORMALLY****
TOTAL RUN TIME: 0 days 0 hours 2 minutes 11 seconds 661 msec
