                         Program Version 3.0.3 - RELEASE   -
|  1> %MaxCore 4096
|  2> %pal nprocs 4 end
|  3> ! RKS B3LYP/G def2-svp opt freq
|  4> ! TightSCF freq Grid7 FinalGrid7
|  5>
|  6>
|  7> * xyz 0 1
|  8>  C                 -1.36314607   -2.47208137    0.00119900
|  9>  C                  0.03201393   -2.47208137    0.00119900
| 10>  C                  0.72955193   -1.26433037    0.00119900
| 11>  C                  0.03189793   -0.05582137    0.00000000
| 12>  C                 -1.36292707   -0.05589937   -0.00047900
| 13>  C                 -2.06052807   -1.26410537    0.00051700
| 14>  H                 -1.91290507   -3.42439837    0.00164900
| 15>  H                  0.58152193   -3.42459437    0.00251400
| 16>  H                  1.82923193   -1.26425037    0.00183300
| 17>  H                  0.58209793    0.89632163   -0.00005900
| 18>  H                 -1.91304907    0.89638163   -0.00143200
| 19>  H                 -3.16013207   -1.26392237    0.00033700
| 20> *
| 21>
| 22> %output
| 23>        print[P_Hirshfeld] 1
| 24>        print[P_BondOrder_M] 1
| 25>        print[P_Mayer] 1
| 26>  end
| 27>
| 28>
| 29>                          ****END OF INPUT****
 Total Charge           Charge          ....    0
 Multiplicity           Mult            ....    1
 Number of Electrons    NEL             ....   42
FINAL SINGLE POINT ENERGY      -232.084494655168
FINAL SINGLE POINT ENERGY      -232.084724639918
                    ***********************HURRAY********************

CARTESIAN COORDINATES (ANGSTROEM)
---------------------------------
  C     -1.365017   -2.475414    0.001261
  C      0.033837   -2.475446    0.001698
  C      0.733270   -1.264166    0.001161
  C      0.033886   -0.052662    0.000152
  C     -1.364830   -0.052632   -0.000297
  C     -2.064323   -1.264040    0.000266
  H     -1.911613   -3.422203    0.001683
  H      0.580282   -3.422326    0.002485
  H      1.826510   -1.264089    0.001500
  H      0.580733    0.893981   -0.000272
  H     -1.911540    0.894094   -0.001087
  H     -3.157565   -1.263878   -0.000072

 Multiplicity           Mult            ....    1
 Number of Electrons    NEL             ....   42
 Basis Dimension        Dim             ....  114

ORBITAL ENERGIES
----------------

  NO   OCC          E(Eh)            E(eV)
   0   2.0000     -10.191855      -277.3345
   1   2.0000     -10.191703      -277.3303
   2   2.0000     -10.191702      -277.3303
   3   2.0000     -10.191309      -277.3196
   4   2.0000     -10.191309      -277.3196
   5   2.0000     -10.191195      -277.3165
   6   2.0000      -0.845291       -23.0015
   7   2.0000      -0.737308       -20.0632
   8   2.0000      -0.737306       -20.0631
   9   2.0000      -0.596870       -16.2416
  10   2.0000      -0.596867       -16.2416
  11   2.0000      -0.521448       -14.1893
  12   2.0000      -0.456727       -12.4282
  13   2.0000      -0.448462       -12.2033
  14   2.0000      -0.422026       -11.4839
  15   2.0000      -0.422023       -11.4838
  16   2.0000      -0.368395       -10.0245
  17   2.0000      -0.346406        -9.4262
  18   2.0000      -0.346388        -9.4257
  19   2.0000      -0.256031        -6.9670
  20   2.0000      -0.256027        -6.9669
  21   0.0000      -0.009128        -0.2484
  22   0.0000      -0.009121        -0.2482
  23   0.0000       0.057317         1.5597
  24   0.0000       0.098728         2.6865
  25   0.0000       0.098729         2.6866

MULLIKEN ATOMIC CHARGES
-----------------------
   0 C :    0.015530
   1 C :    0.015542
   2 C :    0.015521
   3 C :    0.015523
   4 C :    0.015545
   5 C :    0.015527
   6 H :   -0.015533
   7 H :   -0.015533
   8 H :   -0.015531
   9 H :   -0.015529
  10 H :   -0.015532
  11 H :   -0.015533
Sum of atomic charges:   -0.0000000

LOEWDIN ATOMIC CHARGES
----------------------
   0 C :   -0.026409
   1 C :   -0.026411
   2 C :   -0.026414
   3 C :   -0.026415
   4 C :   -0.026414
   5 C :   -0.026408
   6 H :    0.026412
   7 H :    0.026412
   8 H :    0.026412
   9 H :    0.026413
  10 H :    0.026412
  11 H :    0.026412

  Mayer bond orders larger than 0.1
B(  0-C ,  1-C ) :   1.3929 B(  0-C ,  5-C ) :   1.3932 B(  0-C ,  6-H ) :   0.9838
B(  1-C ,  2-C ) :   1.3932 B(  1-C ,  7-H ) :   0.9838 B(  2-C ,  3-C ) :   1.3929
B(  2-C ,  8-H ) :   0.9838 B(  3-C ,  4-C ) :   1.3932 B(  3-C ,  9-H ) :   0.9838
B(  4-C ,  5-C ) :   1.3929 B(  4-C , 10-H ) :   0.9838 B(  5-C , 11-H ) :   0.9838

FINAL SINGLE POINT ENERGY      -232.084727090949

DIPOLE MOMENT
-------------
                                X             Y             Z
Electronic contribution:     -0.00001       0.00002       0.00000
Nuclear contribution   :     -0.00001      -0.00005      -0.00000
                        -----------------------------------------
Total Dipole Moment    :     -0.00002      -0.00003      -0.00000
                        -----------------------------------------
Magnitude (a.u.)       :      0.00004
Magnitude (Debye)      :      0.00009

VIBRATIONAL FREQUENCIES
-----------------------

   0:         0.00 cm**-1
   1:         0.00 cm**-1
   2:         0.00 cm**-1
   3:         0.00 cm**-1
   4:         0.00 cm**-1
   5:         0.00 cm**-1
   6:       418.53 cm**-1
   7:       418.56 cm**-1
   8:       620.11 cm**-1
   9:       620.12 cm**-1
  10:       695.08 cm**-1
  11:       733.97 cm**-1
  12:       870.45 cm**-1
  13:       870.46 cm**-1
  14:      1003.85 cm**-1
  15:      1003.86 cm**-1
  16:      1012.87 cm**-1
  17:      1019.26 cm**-1
  18:      1039.37 cm**-1
  19:      1058.07 cm**-1
  20:      1058.08 cm**-1
  21:      1161.87 cm**-1
  22:      1184.03 cm**-1
  23:      1184.06 cm**-1
  24:      1364.32 cm**-1
  25:      1365.73 cm**-1
  26:      1509.32 cm**-1
  27:      1509.34 cm**-1
  28:      1651.47 cm**-1
  29:      1651.55 cm**-1
  30:      3165.58 cm**-1
  31:      3175.33 cm**-1
  32:      3175.36 cm**-1
  33:      3189.81 cm**-1
  34:      3189.84 cm**-1
  35:      3199.11 cm**-1

IR SPECTRUM
-----------

 Mode    freq (cm**-1)   T**2         TX         TY         TZ
-------------------------------------------------------------------
   6:       418.53    0.000000  ( -0.000269   0.000238  -0.000517)
   7:       418.56    0.000000  ( -0.000464  -0.000300   0.000054)
   8:       620.11    0.000000  ( -0.000019  -0.000172  -0.000167)
   9:       620.12    0.000000  ( -0.000159   0.000059  -0.000368)
  10:       695.08   81.221774  ( -0.001835   0.003705   9.012311)
  11:       733.97    0.000000  (  0.000029  -0.000025   0.000329)
  12:       870.45    0.000000  ( -0.000039   0.000010  -0.000448)
  13:       870.46    0.000000  (  0.000026  -0.000016   0.000108)
  14:      1003.85    0.000000  (  0.000404   0.000470   0.000032)
  15:      1003.86    0.000000  (  0.000278  -0.000423  -0.000095)
  16:      1012.87    0.000000  ( -0.000596   0.000139  -0.000059)
  17:      1019.26    0.000000  ( -0.000137  -0.000145  -0.000007)
  18:      1039.37    0.000000  ( -0.000343   0.000341  -0.000007)
  19:      1058.07    4.636131  (  2.144377   0.194362   0.000682)
  20:      1058.08    4.649669  ( -0.194539   2.147515  -0.001455)
  21:      1161.87    0.000007  (  0.000280  -0.002596  -0.000239)
  22:      1184.03    0.000008  ( -0.000608  -0.002743   0.000016)
  23:      1184.06    0.000007  ( -0.002604   0.000768   0.000026)
  24:      1364.32    0.000002  ( -0.000673  -0.001304  -0.000039)
  25:      1365.73    0.000000  (  0.000136  -0.000065   0.000032)
  26:      1509.32    7.320780  (  2.605440   0.729701   0.000378)
  27:      1509.34    7.333374  ( -0.729009   2.608048  -0.001820)
  28:      1651.47    0.000008  ( -0.002482  -0.001291   0.000021)
  29:      1651.55    0.000008  ( -0.001259   0.002451  -0.000014)
  30:      3165.58    0.000030  (  0.001230  -0.005374  -0.000038)
  31:      3175.33    0.000004  (  0.000203  -0.001925  -0.000081)
  32:      3175.36    0.000012  ( -0.002352   0.002631   0.000048)
  33:      3189.81   31.298500  (  4.022718  -3.887960   0.003786)
  34:      3189.84   31.288114  ( -3.887137  -4.022223   0.001340)
  35:      3199.11    0.000005  ( -0.001322  -0.001737   0.000002)

--------------------------
THERMOCHEMISTRY AT 298.15K
--------------------------

Temperature         ... 298.15 K
Pressure            ... 1.00 atm
Total Mass          ... 78.11 AMU

Throughout the following assumptions are being made:
  (1) The electronic state is orbitally nondegenerate
  (2) There are no thermally accessible electronically excited states
  (3) Hindered rotations indicated by low frequency modes) are not
      treated as such but are treated as vibrations and this may
      case some error
  (4) All equations used are the standard statistical mechanics
      equations for an ideal gas
  (5) All vibrations are strinctly harmonic

------------
INNER ENERGY
------------

The inner energy is: U= E(el) + E(ZPE) + E(vib) + E(rot) + E(trans)
    E(el)   - is the total energy from the electronic structure calculation
              = E(kin-el) + E(nuc-el) + E(el-el) + E(nuc-nuc)
    E(ZPE)  - the the zero temperature vibrational energy from the frequency calculation
    E(vib)  - the the finite temperature correction to E(ZPE) due to population
              of excietd vibrational states
    E(rot)  - is the rotational thermal energy
    E(trans)- is the translational thermal energy

Summary of contributions to the inner energy U:
Electronic energy                ...   -232.08472709 Eh
Zero point energy                ...      0.10051132 Eh      63.07 kcal/mol
Thermal vibrational correction   ...      0.00153648 Eh       0.96 kcal/mol
Thermal rotational correction    ...      0.00141627 Eh       0.89 kcal/mol
Thermal translational correction ...      0.00141627 Eh       0.89 kcal/mol
-----------------------------------------------------------------------
Total thermal energy                   -231.97984675 Eh

Summary of corrections to the electronic energy:
(perhaps to be used in another calculation)
Total thermal correction                  0.00436903 Eh       2.74 kcal/mol
Non-thermal (ZPE) correction              0.10051132 Eh      63.07 kcal/mol
-----------------------------------------------------------------------
Total correction                          0.10488034 Eh      65.81 kcal/mol

--------
ENTHALPY
--------

The enthalpy is H = U + kB*T
                kB is Boltzmann's constant
Total free energy                 ...   -231.97984675 Eh
Thermal Enthalpy correction       ...      0.00094421 Eh       0.59 kcal/mol
-----------------------------------------------------------------------
Total Enthalpy                    ...   -231.97890254 Eh

-------
ENTROPY
-------

The entropy contributions are T*S = T*(S(el)+S(vib)+S(rot)+S(trans)
     S(el)   - electronic entropy
     S(vib)  - vibrational entropy
     S(rot)  - rotational entropy
     S(trans)- translational entropy
The entropies will be listed as mutliplied by the temperature to get
units of energy

Electronic entropy                ...      0.00000000 Eh      0.00 kcal/mol
Vibrational entropy               ...      0.00205335 Eh      1.29 kcal/mol
Rotational entropy                ...      0.01116168 Eh      7.00 kcal/mol
Translational entropy             ...      0.01852142 Eh     11.62 kcal/mol
-----------------------------------------------------------------------
Final entropy term                ...      0.03173646 Eh     19.91 kcal/mol

CAUTION: The rotational entropy is not quite correctly treated here
         because it includes a symmetry number that is not yet correctly
         implemented in ORCA!
For a nonlinear molecule the correct rotational entropy is:
    S(rot) = R*(ln(qrot/sn)+1.5)
    R    = 8.31441 J/mol/K = 1.987191683e-3 kcal/mol/K
    qrot = 91140.7800853
    sn is the rotational symmetry number. We have assumed 3 here
       if it is different for your molecule then you should correct
       the printed rotational entropy by manually evaluating the equation
       as given above

For convenience we print out the resulting values for sn=1 - 12:
 sn= 1  qrot/sn=   91140.7801 T*S(rot)=     7.65 kcal/mol T*S(tot)=    20.57 kcal/mol
 sn= 2  qrot/sn=   45570.3900 T*S(rot)=     7.24 kcal/mol T*S(tot)=    20.16 kcal/mol
 sn= 3  qrot/sn=   30380.2600 T*S(rot)=     7.00 kcal/mol T*S(tot)=    19.91 kcal/mol
 sn= 4  qrot/sn=   22785.1950 T*S(rot)=     6.83 kcal/mol T*S(tot)=    19.74 kcal/mol
 sn= 5  qrot/sn=   18228.1560 T*S(rot)=     6.70 kcal/mol T*S(tot)=    19.61 kcal/mol
 sn= 6  qrot/sn=   15190.1300 T*S(rot)=     6.59 kcal/mol T*S(tot)=    19.50 kcal/mol
 sn= 7  qrot/sn=   13020.1114 T*S(rot)=     6.50 kcal/mol T*S(tot)=    19.41 kcal/mol
 sn= 8  qrot/sn=   11392.5975 T*S(rot)=     6.42 kcal/mol T*S(tot)=    19.33 kcal/mol
 sn= 9  qrot/sn=   10126.7533 T*S(rot)=     6.35 kcal/mol T*S(tot)=    19.26 kcal/mol
 sn=10  qrot/sn=    9114.0780 T*S(rot)=     6.29 kcal/mol T*S(tot)=    19.20 kcal/mol
 sn=11  qrot/sn=    8285.5255 T*S(rot)=     6.23 kcal/mol T*S(tot)=    19.15 kcal/mol
 sn=12  qrot/sn=    7595.0650 T*S(rot)=     6.18 kcal/mol T*S(tot)=    19.09 kcal/mol

-------------------
GIBBS FREE ENTHALPY
-------------------

The Gibbs free enthalpy is G = H - T*S

Total enthalpy                    ...   -231.97890254 Eh
Total entropy correction          ...     -0.03173646 Eh    -19.91 kcal/mol
-----------------------------------------------------------------------
Final Gibbs free enthalpy         ...   -232.01063899 Eh

For completeness - the Gibbs free enthalpy minus the electronic energy
G-E(el)                           ...      0.07408810 Eh     46.49 kcal/mol

                             ****ORCA TERMINATED NORMALLY****
TOTAL RUN TIME: 0 days 0 hours 11 minutes 2 seconds 589 msec
