                         Program Version 3.0.3 - RELEASE   -
|  1> %MaxCore 4096
|  2> %pal nprocs 4 end
|  3> ! RKS B3LYP/G def2-svp opt freq
|  4> ! TightSCF freq Grid7 FinalGrid7
|  5>
|  6>
|  7> * xyz 0 1
|  8>  C                  0.53589946   -0.57339877    0.00019700
|  9>  C                  1.94277746   -0.57339877    0.00019700
| 10>  C                  2.60946846    0.65320823    0.00019700
| 11>  C                  1.85539546    1.82799523   -0.00004400
| 12>  C                  0.45219346    1.72519023   -0.00018500
| 13>  N                 -0.20733654    0.55023923    0.00000000
| 14>  H                  3.70801246    0.69298423   -0.00075300
| 15>  H                 -0.02964754   -1.52221977    0.00031900
| 16>  H                  2.49750946   -1.52029977    0.00046100
| 17>  H                  2.33943146    2.81291923   -0.00014500
| 18>  H                 -0.18115554    2.63025323   -0.00026600
| 19> *
| 20>
| 21> %output
| 22>        print[P_Hirshfeld] 1
| 23>        print[P_BondOrder_M] 1
| 24>        print[P_Mayer] 1
| 25>  end
| 26>
| 27>
| 28>                          ****END OF INPUT****
 Total Charge           Charge          ....    0
 Multiplicity           Mult            ....    1
 Number of Electrons    NEL             ....   42
FINAL SINGLE POINT ENERGY      -248.104761664145
FINAL SINGLE POINT ENERGY      -248.105261795643
FINAL SINGLE POINT ENERGY      -248.105292089081
FINAL SINGLE POINT ENERGY      -248.105298950215
FINAL SINGLE POINT ENERGY      -248.105300369455
                    ***********************HURRAY********************

CARTESIAN COORDINATES (ANGSTROEM)
---------------------------------
  C      0.538009   -0.566383    0.000209
  C      1.937333   -0.572585    0.000133
  C      2.607040    0.653039   -0.000080
  C      1.849804    1.826599   -0.000201
  C      0.454645    1.718444   -0.000090
  N     -0.193720    0.550856    0.000106
  H      3.699669    0.692891   -0.000149
  H     -0.015718   -1.513277    0.000383
  H      2.484992   -1.518094    0.000232
  H      2.327097    2.809507   -0.000375
  H     -0.166603    2.622475   -0.000190

 Multiplicity           Mult            ....    1
 Number of Electrons    NEL             ....   42
 Basis Dimension        Dim             ....  109

ORBITAL ENERGIES
----------------

  NO   OCC          E(Eh)            E(eV)
   0   2.0000     -14.322281      -389.7291
   1   2.0000     -10.225391      -278.2470
   2   2.0000     -10.225378      -278.2467
   3   2.0000     -10.213197      -277.9152
   4   2.0000     -10.203303      -277.6460
   5   2.0000     -10.203289      -277.6456
   6   2.0000      -0.936462       -25.4824
   7   2.0000      -0.799508       -21.7557
   8   2.0000      -0.756392       -20.5825
   9   2.0000      -0.627989       -17.0885
  10   2.0000      -0.624804       -17.0018
  11   2.0000      -0.529608       -14.4114
  12   2.0000      -0.486088       -13.2271
  13   2.0000      -0.468942       -12.7606
  14   2.0000      -0.432425       -11.7669
  15   2.0000      -0.407719       -11.0946
  16   2.0000      -0.403108       -10.9691
  17   2.0000      -0.369482       -10.0541
  18   2.0000      -0.294623        -8.0171
  19   2.0000      -0.270025        -7.3478
  20   2.0000      -0.255473        -6.9518
  21   0.0000      -0.031729        -0.8634
  22   0.0000      -0.021233        -0.5778
  23   0.0000       0.058610         1.5949
  24   0.0000       0.093085         2.5330
  25   0.0000       0.110256         3.0002

MULLIKEN ATOMIC CHARGES
-----------------------
   0 C :    0.033066
   1 C :   -0.006446
   2 C :    0.051560
   3 C :   -0.006444
   4 C :    0.033065
   5 N :   -0.103711
   6 H :   -0.000508
   7 H :    0.004280
   8 H :   -0.004571
   9 H :   -0.004572
  10 H :    0.004280
Sum of atomic charges:    0.0000000

LOEWDIN ATOMIC CHARGES
----------------------
   0 C :    0.019454
   1 C :   -0.045390
   2 C :    0.000697
   3 C :   -0.045390
   4 C :    0.019454
   5 N :   -0.083461
   6 H :    0.031452
   7 H :    0.020874
   8 H :    0.030718
   9 H :    0.030718
  10 H :    0.020874

  Mayer bond orders larger than 0.1
B(  0-C ,  1-C ) :   1.3881 B(  0-C ,  5-N ) :   1.5333 B(  0-C ,  7-H ) :   0.9730
B(  1-C ,  2-C ) :   1.4167 B(  1-C ,  8-H ) :   0.9705 B(  2-C ,  3-C ) :   1.4167
B(  2-C ,  6-H ) :   0.9791 B(  3-C ,  4-C ) :   1.3881 B(  3-C ,  9-H ) :   0.9705
B(  4-C ,  5-N ) :   1.5333 B(  4-C , 10-H ) :   0.9730

FINAL SINGLE POINT ENERGY      -248.105300483858

DIPOLE MOMENT
-------------
                                X             Y             Z
Electronic contribution:     -1.37002      -0.04998       0.00010
Nuclear contribution   :      2.20842       0.08057      -0.00015
                        -----------------------------------------
Total Dipole Moment    :      0.83840       0.03059      -0.00006
                        -----------------------------------------
Magnitude (a.u.)       :      0.83895
Magnitude (Debye)      :      2.13245

VIBRATIONAL FREQUENCIES
-----------------------

   0:         0.00 cm**-1
   1:         0.00 cm**-1
   2:         0.00 cm**-1
   3:         0.00 cm**-1
   4:         0.00 cm**-1
   5:         0.00 cm**-1
   6:       386.80 cm**-1
   7:       426.19 cm**-1
   8:       610.93 cm**-1
   9:       670.54 cm**-1
  10:       721.31 cm**-1
  11:       770.11 cm**-1
  12:       902.90 cm**-1
  13:       963.59 cm**-1
  14:      1012.63 cm**-1
  15:      1012.70 cm**-1
  16:      1030.89 cm**-1
  17:      1046.17 cm**-1
  18:      1075.86 cm**-1
  19:      1089.27 cm**-1
  20:      1157.27 cm**-1
  21:      1235.44 cm**-1
  22:      1321.35 cm**-1
  23:      1372.20 cm**-1
  24:      1473.95 cm**-1
  25:      1510.61 cm**-1
  26:      1638.90 cm**-1
  27:      1639.08 cm**-1
  28:      3144.51 cm**-1
  29:      3148.10 cm**-1
  30:      3178.36 cm**-1
  31:      3193.86 cm**-1
  32:      3200.86 cm**-1

IR SPECTRUM
-----------

 Mode    freq (cm**-1)   T**2         TX         TY         TZ
-------------------------------------------------------------------
   6:       386.80    0.000003  (  0.000513   0.001458  -0.000715)
   7:       426.19    3.378733  (  0.001015   0.000974  -1.838133)
   8:       610.93    4.539478  (  2.129150   0.078716  -0.000083)
   9:       670.54    0.360635  ( -0.022099   0.600122  -0.000002)
  10:       721.31   46.344448  (  0.000293   0.000318  -6.807676)
  11:       770.11    5.523668  (  0.000024  -0.001076  -2.350248)
  12:       902.90    0.000004  (  0.000353   0.002014  -0.000396)
  13:       963.59    0.021458  (  0.001589   0.003596   0.146432)
  14:      1012.63    0.000569  (  0.023761   0.002138  -0.000484)
  15:      1012.70    9.125693  (  3.018836   0.111021  -0.000206)
  16:      1030.89    0.015200  ( -0.000841   0.000868   0.123283)
  17:      1046.17    4.227909  ( -2.054752  -0.076835   0.000149)
  18:      1075.86    0.026542  (  0.005450  -0.162825  -0.000055)
  19:      1089.27    4.268062  (  2.064521   0.076264  -0.000102)
  20:      1157.27    1.763931  (  0.048504  -1.327245   0.000225)
  21:      1235.44    3.550518  ( -1.882910  -0.071876   0.000117)
  22:      1321.35    0.213232  (  0.017097  -0.461454   0.000122)
  23:      1372.20    0.009260  (  0.003394  -0.096171   0.000051)
  24:      1473.95   25.870657  (  0.186115  -5.082914   0.000648)
  25:      1510.61    3.570036  (  1.888127   0.070811  -0.000089)
  26:      1638.90   23.178052  ( -4.812876  -0.119483   0.000311)
  27:      1639.08   12.259015  (  0.050814  -3.500919   0.000462)
  28:      3144.51   31.569417  ( -0.205116   5.614922  -0.000708)
  29:      3148.10    7.632788  ( -2.760976  -0.098988   0.000185)
  30:      3178.36    4.009020  ( -2.000967  -0.071776   0.000145)
  31:      3193.86   18.308750  (  0.155562  -4.276044   0.000602)
  32:      3200.86    4.849921  ( -2.200814  -0.079625   0.000156)

--------------------------
THERMOCHEMISTRY AT 298.15K
--------------------------

Temperature         ... 298.15 K
Pressure            ... 1.00 atm
Total Mass          ... 79.10 AMU

Throughout the following assumptions are being made:
  (1) The electronic state is orbitally nondegenerate
  (2) There are no thermally accessible electronically excited states
  (3) Hindered rotations indicated by low frequency modes) are not
      treated as such but are treated as vibrations and this may
      case some error
  (4) All equations used are the standard statistical mechanics
      equations for an ideal gas
  (5) All vibrations are strinctly harmonic

------------
INNER ENERGY
------------

The inner energy is: U= E(el) + E(ZPE) + E(vib) + E(rot) + E(trans)
    E(el)   - is the total energy from the electronic structure calculation
              = E(kin-el) + E(nuc-el) + E(el-el) + E(nuc-nuc)
    E(ZPE)  - the the zero temperature vibrational energy from the frequency calculation
    E(vib)  - the the finite temperature correction to E(ZPE) due to population
              of excietd vibrational states
    E(rot)  - is the rotational thermal energy
    E(trans)- is the translational thermal energy

Summary of contributions to the inner energy U:
Electronic energy                ...   -248.10530048 Eh
Zero point energy                ...      0.08869906 Eh      55.66 kcal/mol
Thermal vibrational correction   ...      0.00142980 Eh       0.90 kcal/mol
Thermal rotational correction    ...      0.00141627 Eh       0.89 kcal/mol
Thermal translational correction ...      0.00141627 Eh       0.89 kcal/mol
-----------------------------------------------------------------------
Total thermal energy                   -248.01233909 Eh

Summary of corrections to the electronic energy:
(perhaps to be used in another calculation)
Total thermal correction                  0.00426234 Eh       2.67 kcal/mol
Non-thermal (ZPE) correction              0.08869906 Eh      55.66 kcal/mol
-----------------------------------------------------------------------
Total correction                          0.09296140 Eh      58.33 kcal/mol

--------
ENTHALPY
--------

The enthalpy is H = U + kB*T
                kB is Boltzmann's constant
Total free energy                 ...   -248.01233909 Eh
Thermal Enthalpy correction       ...      0.00094421 Eh       0.59 kcal/mol
-----------------------------------------------------------------------
Total Enthalpy                    ...   -248.01139488 Eh

-------
ENTROPY
-------

The entropy contributions are T*S = T*(S(el)+S(vib)+S(rot)+S(trans)
     S(el)   - electronic entropy
     S(vib)  - vibrational entropy
     S(rot)  - rotational entropy
     S(trans)- translational entropy
The entropies will be listed as mutliplied by the temperature to get
units of energy

Electronic entropy                ...      0.00000000 Eh      0.00 kcal/mol
Vibrational entropy               ...      0.00192846 Eh      1.21 kcal/mol
Rotational entropy                ...      0.01110214 Eh      6.97 kcal/mol
Translational entropy             ...      0.01853922 Eh     11.63 kcal/mol
-----------------------------------------------------------------------
Final entropy term                ...      0.03156982 Eh     19.81 kcal/mol

CAUTION: The rotational entropy is not quite correctly treated here
         because it includes a symmetry number that is not yet correctly
         implemented in ORCA!
For a nonlinear molecule the correct rotational entropy is:
    S(rot) = R*(ln(qrot/sn)+1.5)
    R    = 8.31441 J/mol/K = 1.987191683e-3 kcal/mol/K
    qrot = 85570.5023445
    sn is the rotational symmetry number. We have assumed 3 here
       if it is different for your molecule then you should correct
       the printed rotational entropy by manually evaluating the equation
       as given above

For convenience we print out the resulting values for sn=1 - 12:
 sn= 1  qrot/sn=   85570.5023 T*S(rot)=     7.62 kcal/mol T*S(tot)=    20.46 kcal/mol
 sn= 2  qrot/sn=   42785.2512 T*S(rot)=     7.21 kcal/mol T*S(tot)=    20.05 kcal/mol
 sn= 3  qrot/sn=   28523.5008 T*S(rot)=     6.97 kcal/mol T*S(tot)=    19.81 kcal/mol
 sn= 4  qrot/sn=   21392.6256 T*S(rot)=     6.80 kcal/mol T*S(tot)=    19.64 kcal/mol
 sn= 5  qrot/sn=   17114.1005 T*S(rot)=     6.66 kcal/mol T*S(tot)=    19.51 kcal/mol
 sn= 6  qrot/sn=   14261.7504 T*S(rot)=     6.56 kcal/mol T*S(tot)=    19.40 kcal/mol
 sn= 7  qrot/sn=   12224.3575 T*S(rot)=     6.46 kcal/mol T*S(tot)=    19.31 kcal/mol
 sn= 8  qrot/sn=   10696.3128 T*S(rot)=     6.39 kcal/mol T*S(tot)=    19.23 kcal/mol
 sn= 9  qrot/sn=    9507.8336 T*S(rot)=     6.32 kcal/mol T*S(tot)=    19.16 kcal/mol
 sn=10  qrot/sn=    8557.0502 T*S(rot)=     6.25 kcal/mol T*S(tot)=    19.10 kcal/mol
 sn=11  qrot/sn=    7779.1366 T*S(rot)=     6.20 kcal/mol T*S(tot)=    19.04 kcal/mol
 sn=12  qrot/sn=    7130.8752 T*S(rot)=     6.15 kcal/mol T*S(tot)=    18.99 kcal/mol

-------------------
GIBBS FREE ENTHALPY
-------------------

The Gibbs free enthalpy is G = H - T*S

Total enthalpy                    ...   -248.01139488 Eh
Total entropy correction          ...     -0.03156982 Eh    -19.81 kcal/mol
-----------------------------------------------------------------------
Final Gibbs free enthalpy         ...   -248.04296470 Eh

For completeness - the Gibbs free enthalpy minus the electronic energy
G-E(el)                           ...      0.06233579 Eh     39.12 kcal/mol

                             ****ORCA TERMINATED NORMALLY****
TOTAL RUN TIME: 0 days 0 hours 8 minutes 8 seconds 851 msec
